<VTKFile type="UnstructuredGrid" version="0.1" byte_order="BigEndian">
  <UnstructuredGrid>
    <Piece NumberOfPoints="1190" NumberOfCells="2564">
      <PointData>
        <DataArray type="Float32" Name="position" NumberOfComponents="3" format="ascii">
-99.9751 -0.959586 100.007
100.025 -0.959586 100.007
-99.9751 -0.959586 -99.9929
100.025 -0.959586 -99.9929
-0.915977 -0.326963 -0.085561
-0.919392 -0.326963 -0.039281
-0.92885 -0.279943 -0.086829
-0.910298 -0.326963 -0.131619
-0.90084 -0.373289 -0.08407
-0.904201 -0.373289 -0.038534
-0.932313 -0.279943 -0.039915
-0.923094 -0.279943 -0.133517
-0.895253 -0.373289 -0.129387
-0.261361 -0.951375 -0.021087
-0.262273 -0.951375 -0.007011
-0.306308 -0.951375 -0.025514
-0.259509 -0.951375 -0.035071
-0.217487 -0.951375 -0.016766
-0.217856 -0.951375 -0.004866
-0.30751 -0.951375 -0.009221
-0.304309 -0.951375 -0.041729
-0.215528 -0.951375 -0.028509
-0.953581 -0.135851 -0.089265
-0.957133 -0.135851 -0.041135
-0.957133 -0.087196 -0.089615
-0.947675 -0.135851 -0.137163
-0.947675 -0.184272 -0.088683
-0.951206 -0.184272 -0.040844
-0.960698 -0.087196 -0.04131
-0.951206 -0.087196 -0.137687
-0.941805 -0.184272 -0.136292
-0.438562 -0.948158 -0.03854
-0.440245 -0.948158 -0.015742
-0.480554 -0.938509 -0.042676
-0.435765 -0.948158 -0.061228
-0.395455 -0.951375 -0.034294
-0.396981 -0.951375 -0.013616
-0.482389 -0.938509 -0.017812
-0.477504 -0.938509 -0.06742
-0.392918 -0.951375 -0.054873
-0.953581 0.059005 -0.089265
-0.957133 0.059005 -0.041135
-0.947675 0.107426 -0.088683
-0.947675 0.059005 -0.137163
-0.957133 0.01035 -0.089615
-0.960698 0.01035 -0.04131
-0.951206 0.107426 -0.040844
-0.941805 0.107426 -0.136292
-0.951206 0.01035 -0.137687
-0.916369 0.247098 -0.0856
-0.919787 0.247098 -0.0393
-0.902412 0.284368 -0.084225
-0.910688 0.247098 -0.131677
-0.92885 0.203097 -0.086829
-0.932313 0.203097 -0.039915
-0.905778 0.284368 -0.038612
-0.896815 0.284368 -0.129619
-0.923094 0.203097 -0.133517
-0.59883 -0.846084 -0.054325
-0.601094 -0.846085 -0.023644
-0.635375 -0.800385 -0.057924
-0.595065 -0.846085 -0.084858
-0.560785 -0.887048 -0.050578
-0.562911 -0.887048 -0.021768
-0.637772 -0.800385 -0.025446
-0.63139 -0.800385 -0.090247
-0.55725 -0.887048 -0.079249
-0.735126 -0.670277 -0.067749
-0.737885 -0.670277 -0.030364
-0.764819 -0.630543 -0.070673
-0.730539 -0.670277 -0.104954
-0.703605 -0.71104 -0.064644
-0.70625 -0.71104 -0.02881
-0.767687 -0.630543 -0.031828
-0.760053 -0.630543 -0.109332
-0.699208 -0.71104 -0.100307
-0.842213 -0.506986 -0.078296
-0.845362 -0.506986 -0.035644
-0.863914 -0.463409 -0.080433
-0.83698 -0.506986 -0.120743
-0.818428 -0.549437 -0.075953
-0.821489 -0.549437 -0.034471
-0.867141 -0.463409 -0.036714
-0.85855 -0.463409 -0.123943
-0.813338 -0.549437 -0.117236
-0.808889 -0.506986 -0.245829
-0.820298 -0.506986 -0.20461
-0.829756 -0.463409 -0.252159
-0.795475 -0.506986 -0.286439
-0.786017 -0.549437 -0.238891
-0.797113 -0.549437 -0.198803
-0.84145 -0.463409 -0.209909
-0.816006 -0.463409 -0.293785
-0.772971 -0.549437 -0.278387
-0.879818 -0.326963 -0.267345
-0.892197 -0.326963 -0.22262
-0.892197 -0.279943 -0.2711
-0.865263 -0.326963 -0.31141
-0.865263 -0.373289 -0.26293
-0.877443 -0.373289 -0.218924
-0.904745 -0.279943 -0.225763
-0.877443 -0.279943 -0.315768
-0.850942 -0.373289 -0.306286
-0.250359 -0.951375 -0.076401
-0.253999 -0.951375 -0.062773
-0.293578 -0.951375 -0.089511
-0.245814 -0.951375 -0.089754
-0.208171 -0.951375 -0.063603
-0.210854 -0.951375 -0.052004
-0.297936 -0.951375 -0.073766
-0.288454 -0.951375 -0.105024
-0.203958 -0.951375 -0.074738
-0.915977 -0.135851 -0.278313
-0.92885 -0.135851 -0.231801
-0.919392 -0.087196 -0.27935
-0.90084 -0.135851 -0.324139
-0.910298 -0.184272 -0.276591
-0.923094 -0.184272 -0.230359
-0.932313 -0.087196 -0.232669
-0.904201 -0.087196 -0.325342
-0.895253 -0.184272 -0.32214
-0.42075 -0.948158 -0.128088
-0.426848 -0.948158 -0.106056
-0.461128 -0.938509 -0.140337
-0.41358 -0.948158 -0.149795
-0.379299 -0.951375 -0.115514
-0.38483 -0.951375 -0.095531
-0.467779 -0.938509 -0.116309
-0.453309 -0.938509 -0.16401
-0.372796 -0.951375 -0.135202
-0.915976 0.059005 -0.278313
-0.92885 0.059005 -0.231801
-0.910298 0.107426 -0.276591
-0.90084 0.059005 -0.324139
-0.919392 0.01035 -0.27935
-0.932313 0.01035 -0.232669
-0.923094 0.107426 -0.230359
-0.895253 0.107426 -0.32214
-0.904201 0.01035 -0.325342
-0.880195 0.247098 -0.267459
-0.89258 0.247098 -0.222716
-0.866774 0.284368 -0.263388
-0.865634 0.247098 -0.311543
-0.892197 0.203097 -0.2711
-0.904745 0.203097 -0.225763
-0.878975 0.284368 -0.219308
-0.852429 0.284368 -0.306818
-0.877443 0.203097 -0.315768
-0.574858 -0.846084 -0.174836
-0.583065 -0.846085 -0.145187
-0.609999 -0.800385 -0.185496
-0.565209 -0.846085 -0.204049
-0.538275 -0.887048 -0.163739
-0.545981 -0.887048 -0.135898
-0.618686 -0.800385 -0.154109
-0.599785 -0.800385 -0.21642
-0.529215 -0.887048 -0.19117
-0.705917 -0.670277 -0.214593
-0.715917 -0.670277 -0.178464
-0.734469 -0.630543 -0.223254
-0.69416 -0.670277 -0.250188
-0.675607 -0.71104 -0.205398
-0.685192 -0.71104 -0.170768
-0.74486 -0.630543 -0.185714
-0.722253 -0.630543 -0.26024
-0.664337 -0.71104 -0.239517
-0.809237 0.247098 -0.438767
-0.830113 0.247098 -0.3973
-0.796868 0.284368 -0.432156
-0.786356 0.247098 -0.479163
-0.820298 0.203097 -0.444679
-0.84145 0.203097 -0.402662
-0.817434 0.284368 -0.391303
-0.774326 0.284368 -0.471952
-0.797113 0.203097 -0.48561
-0.648621 -0.670277 -0.352916
-0.665477 -0.670277 -0.319433
-0.674935 -0.630543 -0.366981
-0.630146 -0.670277 -0.385534
-0.620688 -0.71104 -0.337985
-0.636845 -0.71104 -0.305891
-0.69245 -0.630543 -0.33219
-0.655738 -0.630543 -0.400873
-0.602978 -0.71104 -0.36925
-0.743521 -0.506986 -0.403641
-0.762752 -0.506986 -0.36544
-0.762752 -0.463409 -0.41392
-0.722442 -0.506986 -0.440854
-0.722442 -0.549437 -0.392374
-0.741146 -0.549437 -0.355221
-0.782464 -0.463409 -0.374763
-0.741146 -0.463409 -0.452065
-0.701942 -0.549437 -0.428567
-0.808889 -0.326963 -0.438581
-0.829756 -0.326963 -0.397131
-0.820298 -0.279943 -0.444679
-0.786017 -0.326963 -0.47896
-0.795475 -0.373289 -0.431411
-0.816006 -0.373289 -0.390628
-0.84145 -0.279943 -0.402662
-0.797113 -0.279943 -0.48561
-0.772971 -0.373289 -0.47114
-0.842213 -0.135851 -0.456393
-0.863914 -0.135851 -0.413286
-0.845362 -0.087196 -0.458076
-0.818427 -0.135851 -0.498386
-0.83698 -0.184272 -0.453596
-0.85855 -0.184272 -0.410749
-0.867141 -0.087196 -0.414813
-0.821489 -0.087196 -0.500221
-0.813338 -0.184272 -0.495335
-0.228777 -0.951375 -0.128505
-0.235006 -0.951375 -0.115849
-0.268608 -0.951375 -0.149795
-0.221714 -0.951375 -0.140715
-0.189896 -0.951375 -0.107722
-0.19479 -0.951375 -0.09687
-0.275954 -0.951375 -0.135202
-0.260556 -0.951375 -0.16401
-0.183592 -0.951375 -0.117821
-0.38581 -0.948158 -0.21244
-0.396089 -0.948158 -0.192022
-0.423023 -0.938509 -0.232331
-0.374543 -0.948158 -0.232331
-0.347609 -0.951375 -0.192022
-0.356932 -0.951375 -0.173502
-0.434233 -0.938509 -0.210063
-0.410735 -0.938509 -0.254024
-0.33739 -0.951375 -0.210063
-0.842213 0.059005 -0.456393
-0.863914 0.059005 -0.413286
-0.83698 0.107426 -0.453596
-0.818427 0.059005 -0.498386
-0.845361 0.01035 -0.458076
-0.867141 0.01035 -0.414813
-0.85855 0.107426 -0.410749
-0.813338 0.107426 -0.495335
-0.821489 0.01035 -0.500221
-0.527837 -0.846084 -0.288356
-0.54167 -0.846085 -0.260877
-0.560223 -0.800385 -0.305666
-0.512674 -0.846085 -0.315124
-0.494122 -0.887048 -0.270335
-0.507112 -0.887048 -0.244532
-0.574867 -0.800385 -0.276577
-0.544172 -0.800385 -0.334003
-0.479884 -0.887048 -0.295471
-0.335085 -0.948158 -0.288356
-0.34915 -0.948158 -0.270335
-0.367702 -0.938509 -0.315124
-0.320154 -0.948158 -0.305666
-0.301601 -0.951375 -0.260877
-0.314358 -0.951375 -0.244531
-0.383042 -0.938509 -0.29547
-0.351419 -0.938509 -0.334003
-0.288059 -0.951375 -0.276577
-0.459573 -0.846084 -0.39052
-0.478501 -0.846085 -0.366268
-0.487959 -0.800385 -0.413817
-0.439479 -0.846085 -0.413817
-0.430021 -0.887048 -0.366268
-0.447795 -0.887048 -0.343495
-0.507997 -0.800385 -0.388143
-0.466688 -0.800385 -0.438478
-0.411153 -0.887048 -0.388143
-0.706222 0.247098 -0.59294
-0.734786 0.247098 -0.556342
-0.695381 0.284368 -0.584043
-0.6759 0.247098 -0.628096
-0.715917 0.203097 -0.600896
-0.74486 0.203097 -0.563813
-0.723521 0.284368 -0.547987
-0.665508 0.284368 -0.618677
-0.685192 0.203097 -0.636518
-0.565441 -0.670277 -0.477404
-0.588506 -0.670277 -0.447853
-0.588506 -0.630543 -0.496333
-0.540957 -0.670277 -0.505791
-0.540957 -0.71104 -0.457311
-0.563065 -0.71104 -0.428985
-0.612471 -0.630543 -0.465627
-0.563065 -0.630543 -0.525828
-0.517488 -0.71104 -0.48452
-0.648621 -0.506986 -0.545669
-0.674935 -0.506986 -0.511953
-0.665477 -0.463409 -0.559502
-0.620688 -0.506986 -0.578054
-0.630146 -0.549437 -0.530506
-0.655738 -0.549437 -0.497716
-0.69245 -0.463409 -0.524943
-0.636845 -0.463409 -0.592698
-0.602978 -0.549437 -0.562003
-0.705917 -0.326963 -0.59269
-0.734469 -0.326963 -0.556107
-0.715917 -0.279943 -0.600896
-0.675607 -0.326963 -0.62783
-0.69416 -0.373289 -0.583041
-0.722253 -0.373289 -0.547046
-0.74486 -0.279943 -0.563813
-0.685192 -0.279943 -0.636518
-0.664337 -0.373289 -0.617616
-0.735126 -0.135851 -0.616661
-0.764819 -0.135851 -0.578616
-0.737885 -0.087196 -0.618926
-0.703605 -0.135851 -0.653206
-0.730539 -0.184272 -0.612896
-0.760053 -0.184272 -0.575081
-0.767687 -0.087196 -0.580742
-0.70625 -0.087196 -0.655603
-0.699208 -0.184272 -0.649221
-0.197444 -0.951375 -0.175397
-0.206022 -0.951375 -0.1642
-0.232356 -0.951375 -0.204049
-0.188135 -0.951375 -0.185995
-0.163365 -0.951375 -0.147429
-0.170283 -0.951375 -0.13774
-0.242408 -0.951375 -0.19117
-0.221686 -0.951375 -0.21642
-0.155212 -0.951375 -0.156104
-0.735126 0.059005 -0.616661
-0.764819 0.059005 -0.578616
-0.730539 0.107426 -0.612896
-0.703605 0.059005 -0.653206
-0.737885 0.01035 -0.618925
-0.767686 0.01035 -0.580742
-0.760053 0.107426 -0.575081
-0.699208 0.107426 -0.649221
-0.70625 0.01035 -0.655603
-0.598829 -0.135851 -0.752957
-0.635375 -0.135851 -0.721436
-0.601094 -0.087196 -0.755717
-0.560784 -0.135851 -0.782651
-0.595065 -0.184272 -0.74837
-0.631389 -0.184272 -0.717039
-0.637772 -0.087196 -0.724081
-0.562911 -0.087196 -0.785518
-0.557249 -0.184272 -0.777884
-0.598829 0.059005 -0.752957
-0.635374 0.059005 -0.721436
-0.595065 0.107426 -0.74837
-0.560784 0.059005 -0.782651
-0.601094 0.01035 -0.755717
-0.637772 0.01035 -0.724081
-0.631389 0.107426 -0.717039
-0.557249 0.107426 -0.777884
-0.562911 0.01035 -0.785518
-0.270524 -0.948158 -0.352916
-0.287835 -0.948158 -0.337985
-0.297293 -0.938509 -0.385534
-0.252503 -0.948158 -0.366981
-0.243045 -0.951375 -0.319433
-0.258746 -0.951375 -0.305891
-0.316172 -0.938509 -0.36925
-0.277639 -0.938509 -0.400873
-0.2267 -0.951375 -0.33219
-0.575109 0.247098 -0.724054
-0.610264 0.247098 -0.693731
-0.566211 0.284368 -0.713212
-0.53851 0.247098 -0.752618
-0.583065 0.203097 -0.733748
-0.618686 0.203097 -0.703024
-0.600845 0.284368 -0.683339
-0.530156 0.284368 -0.741353
-0.545981 0.203097 -0.762691
-0.372689 -0.846084 -0.477404
-0.395985 -0.846085 -0.457311
-0.395985 -0.800385 -0.505791
-0.348437 -0.846085 -0.496333
-0.348437 -0.887048 -0.447853
-0.370312 -0.887048 -0.428985
-0.420646 -0.800385 -0.48452
-0.370312 -0.800385 -0.525828
-0.325663 -0.887048 -0.465627
-0.459573 -0.670277 -0.583273
-0.487959 -0.670277 -0.558789
-0.478501 -0.630543 -0.606337
-0.430021 -0.670277 -0.606337
-0.439479 -0.71104 -0.558789
-0.466688 -0.71104 -0.53532
-0.507997 -0.630543 -0.580896
-0.447795 -0.630543 -0.630302
-0.411153 -0.71104 -0.580896
-0.527837 -0.506986 -0.666453
-0.560223 -0.506986 -0.638519
-0.54167 -0.463409 -0.683309
-0.494122 -0.506986 -0.692767
-0.512674 -0.549437 -0.647977
-0.544172 -0.549437 -0.62081
-0.574867 -0.463409 -0.654676
-0.507111 -0.463409 -0.710281
-0.479884 -0.549437 -0.673569
-0.574858 -0.326963 -0.723748
-0.609999 -0.326963 -0.693439
-0.583065 -0.279943 -0.733748
-0.538275 -0.326963 -0.752301
-0.565209 -0.373289 -0.711991
-0.599785 -0.373289 -0.682169
-0.618686 -0.279943 -0.703024
-0.545981 -0.279943 -0.762691
-0.529215 -0.373289 -0.740084
-0.157565 -0.951375 -0.215276
-0.168163 -0.951375 -0.205967
-0.186217 -0.951375 -0.250188
-0.146368 -0.951375 -0.223854
-0.129597 -0.951375 -0.181196
-0.138272 -0.951375 -0.173043
-0.198589 -0.951375 -0.239517
-0.173338 -0.951375 -0.26024
-0.119908 -0.951375 -0.188114
-0.42075 -0.326963 -0.826721
-0.461128 -0.326963 -0.803849
-0.426848 -0.279943 -0.838129
-0.379299 -0.326963 -0.847587
-0.41358 -0.373289 -0.813307
-0.453309 -0.373289 -0.790803
-0.467779 -0.279943 -0.814944
-0.38483 -0.279943 -0.859281
-0.372796 -0.373289 -0.833838
-0.110673 -0.951375 -0.246608
-0.122883 -0.951375 -0.239546
-0.131963 -0.951375 -0.286439
-0.098017 -0.951375 -0.252837
-0.089891 -0.951375 -0.207727
-0.09999 -0.951375 -0.201423
-0.146179 -0.951375 -0.278387
-0.117371 -0.951375 -0.293785
-0.079038 -0.951375 -0.212622
-0.438562 -0.135851 -0.860045
-0.480554 -0.135851 -0.836259
-0.440244 -0.087196 -0.863193
-0.395455 -0.135851 -0.881745
-0.435764 -0.184272 -0.854811
-0.477503 -0.184272 -0.831169
-0.482389 -0.087196 -0.839321
-0.396981 -0.087196 -0.884972
-0.392918 -0.184272 -0.876381
-0.194609 -0.948158 -0.403641
-0.2145 -0.948158 -0.392374
-0.2145 -0.938509 -0.440854
-0.17419 -0.948158 -0.41392
-0.17419 -0.951375 -0.36544
-0.192231 -0.951375 -0.355221
-0.236193 -0.938509 -0.428567
-0.192231 -0.938509 -0.452065
-0.15567 -0.951375 -0.374763
-0.438562 0.059005 -0.860045
-0.480554 0.059005 -0.836259
-0.435764 0.107426 -0.854811
-0.395455 0.059005 -0.881745
-0.440244 0.01035 -0.863193
-0.482389 0.01035 -0.839321
-0.477503 0.107426 -0.831169
-0.392918 0.107426 -0.876381
-0.396981 0.01035 -0.884972
-0.420936 0.247098 -0.827069
-0.461331 0.247098 -0.804187
-0.414324 0.284368 -0.8147
-0.379468 0.247098 -0.847944
-0.426848 0.203097 -0.838129
-0.467779 0.203097 -0.814944
-0.454121 0.284368 -0.792158
-0.373471 0.284368 -0.835265
-0.38483 0.203097 -0.859281
-0.270524 -0.846084 -0.545669
-0.297293 -0.846085 -0.530506
-0.287835 -0.800385 -0.578054
-0.243045 -0.846085 -0.559502
-0.252503 -0.887048 -0.511953
-0.277639 -0.887048 -0.497716
-0.316172 -0.800385 -0.562003
-0.258746 -0.800385 -0.592698
-0.2267 -0.887048 -0.524943
-0.335085 -0.670277 -0.666453
-0.367702 -0.670277 -0.647977
-0.34915 -0.630543 -0.692767
-0.301601 -0.670277 -0.683309
-0.320154 -0.71104 -0.638519
-0.351419 -0.71104 -0.62081
-0.383042 -0.630543 -0.673569
-0.314358 -0.630543 -0.710281
-0.288059 -0.71104 -0.654676
-0.38581 -0.506986 -0.761352
-0.423023 -0.506986 -0.740274
-0.396089 -0.463409 -0.780583
-0.347609 -0.506986 -0.780583
-0.374543 -0.549437 -0.740274
-0.410735 -0.549437 -0.719773
-0.434233 -0.463409 -0.758977
-0.356932 -0.463409 -0.800295
-0.33739 -0.549437 -0.758977
-0.227997 -0.506986 -0.82672
-0.268608 -0.506986 -0.813307
-0.234327 -0.463409 -0.847587
-0.186779 -0.506986 -0.838129
-0.221059 -0.549437 -0.803849
-0.260556 -0.549437 -0.790803
-0.275954 -0.463409 -0.833838
-0.192077 -0.463409 -0.859281
-0.180971 -0.549437 -0.814944
-0.249513 -0.326963 -0.897649
-0.293578 -0.326963 -0.883094
-0.253268 -0.279943 -0.910028
-0.204788 -0.326963 -0.910028
-0.245098 -0.373289 -0.883094
-0.288454 -0.373289 -0.868773
-0.297936 -0.279943 -0.895274
-0.207932 -0.279943 -0.922577
-0.201093 -0.373289 -0.895274
-0.260482 -0.135851 -0.933808
-0.306308 -0.135851 -0.918671
-0.261518 -0.087196 -0.937224
-0.21397 -0.135851 -0.946682
-0.258759 -0.184272 -0.928129
-0.304309 -0.184272 -0.913084
-0.30751 -0.087196 -0.922032
-0.214837 -0.087196 -0.950144
-0.212528 -0.184272 -0.940925
-0.058569 -0.951375 -0.26819
-0.071923 -0.951375 -0.263646
-0.071679 -0.951375 -0.31141
-0.044941 -0.951375 -0.27183
-0.045771 -0.951375 -0.226002
-0.056906 -0.951375 -0.221789
-0.087192 -0.951375 -0.306286
-0.055934 -0.951375 -0.315768
-0.034173 -0.951375 -0.228685
-0.110257 -0.948158 -0.438581
-0.131963 -0.948158 -0.431411
-0.122505 -0.938509 -0.47896
-0.088225 -0.948158 -0.444679
-0.097683 -0.951375 -0.397131
-0.117371 -0.951375 -0.390628
-0.146179 -0.938509 -0.47114
-0.098477 -0.938509 -0.48561
-0.0777 -0.951375 -0.402662
-0.260482 0.059005 -0.933808
-0.306308 0.059005 -0.918671
-0.258759 0.107426 -0.928129
-0.21397 0.059005 -0.946682
-0.261518 0.01035 -0.937224
-0.30751 0.01035 -0.922032
-0.304309 0.107426 -0.913084
-0.212528 0.107426 -0.940925
-0.214837 0.01035 -0.950144
-0.157005 -0.846084 -0.59269
-0.186217 -0.846085 -0.583041
-0.167665 -0.800385 -0.62783
-0.127355 -0.846085 -0.600896
-0.145908 -0.887048 -0.556107
-0.173338 -0.887048 -0.547046
-0.198588 -0.800385 -0.617616
-0.136278 -0.800385 -0.636518
-0.118066 -0.887048 -0.563813
-0.249628 0.247098 -0.898027
-0.293711 0.247098 -0.883466
-0.245557 0.284368 -0.884605
-0.204884 0.247098 -0.910411
-0.253268 0.203097 -0.910028
-0.297936 0.203097 -0.895274
-0.288986 0.284368 -0.87026
-0.201476 0.284368 -0.896806
-0.207932 0.203097 -0.922577
-0.196761 -0.670277 -0.723748
-0.232356 -0.670277 -0.711991
-0.205422 -0.630543 -0.752301
-0.160633 -0.670277 -0.733748
-0.187567 -0.71104 -0.693439
-0.221686 -0.71104 -0.682169
-0.242408 -0.630543 -0.740084
-0.167882 -0.630543 -0.762691
-0.152937 -0.71104 -0.703024
-0.067768 0.247098 -0.934201
-0.113845 0.247098 -0.92852
-0.066394 0.284368 -0.920243
-0.021468 0.247098 -0.937618
-0.068998 0.203097 -0.946682
-0.115685 0.203097 -0.940925
-0.111787 0.284368 -0.914646
-0.02078 0.284368 -0.92361
-0.022084 0.203097 -0.950144
-0.049917 -0.670277 -0.752957
-0.087122 -0.670277 -0.74837
-0.052842 -0.630543 -0.782651
-0.012532 -0.670277 -0.755717
-0.046813 -0.71104 -0.721436
-0.082475 -0.71104 -0.717039
-0.091501 -0.630543 -0.777884
-0.013996 -0.630543 -0.785518
-0.010978 -0.71104 -0.724081
-0.060465 -0.506986 -0.860045
-0.102912 -0.506986 -0.854811
-0.062602 -0.463409 -0.881745
-0.017812 -0.506986 -0.863193
-0.058122 -0.549437 -0.836259
-0.099405 -0.549437 -0.831169
-0.106111 -0.463409 -0.876381
-0.018882 -0.463409 -0.884972
-0.016639 -0.549437 -0.839321
-0.06773 -0.326963 -0.933808
-0.113787 -0.326963 -0.928129
-0.068998 -0.279943 -0.946682
-0.021449 -0.326963 -0.937224
-0.066239 -0.373289 -0.918671
-0.111556 -0.373289 -0.913084
-0.115685 -0.279943 -0.940925
-0.022084 -0.279943 -0.950144
-0.020703 -0.373289 -0.922032
-0.071433 -0.135851 -0.971412
-0.119332 -0.135851 -0.965506
-0.071783 -0.087196 -0.974964
-0.023303 -0.135851 -0.974964
-0.070852 -0.184272 -0.965506
-0.118461 -0.184272 -0.959637
-0.119855 -0.087196 -0.969037
-0.023478 -0.087196 -0.97853
-0.023012 -0.184272 -0.969037
-0.003256 -0.951375 -0.279193
-0.017239 -0.951375 -0.277341
-0.007683 -0.951375 -0.324139
0.01082 -0.951375 -0.280104
0.001066 -0.951375 -0.235318
-0.010677 -0.951375 -0.233359
-0.023897 -0.951375 -0.32214
0.00861 -0.951375 -0.325342
0.012965 -0.951375 -0.235687
-0.071433 0.059005 -0.971412
-0.119332 0.059005 -0.965506
-0.070852 0.107426 -0.965506
-0.023303 0.059005 -0.974964
-0.071783 0.01035 -0.974964
-0.119855 0.01035 -0.969037
-0.118461 0.107426 -0.959636
-0.023012 0.107426 -0.969037
-0.023478 0.01035 -0.97853
-0.020708 -0.948158 -0.456393
-0.043397 -0.948158 -0.453596
-0.024844 -0.938509 -0.498386
0.00209 -0.948158 -0.458076
-0.016463 -0.951375 -0.413286
-0.037041 -0.951375 -0.410749
-0.049588 -0.938509 -0.495335
1.9e-05 -0.938509 -0.500221
0.004215 -0.951375 -0.414813
-0.036493 -0.846084 -0.616661
-0.067027 -0.846085 -0.612896
-0.040093 -0.800385 -0.653206
-0.005812 -0.846085 -0.618926
-0.032746 -0.887048 -0.578616
-0.061417 -0.887048 -0.575081
-0.072415 -0.800385 -0.649221
-0.007614 -0.800385 -0.655603
-0.003936 -0.887048 -0.580742
0.117654 0.247098 -0.934201
0.071354 0.247098 -0.937618
0.116279 0.284368 -0.920243
0.163731 0.247098 -0.92852
0.118883 0.203097 -0.946682
0.07197 0.203097 -0.950144
0.070666 0.284368 -0.92361
0.161673 0.284368 -0.914646
0.165571 0.203097 -0.940925
0.086379 -0.846084 -0.616661
0.055698 -0.846085 -0.618926
0.089978 -0.800385 -0.653206
0.116912 -0.846085 -0.612896
0.082632 -0.887048 -0.578616
0.053822 -0.887048 -0.580742
0.0575 -0.800385 -0.655603
0.122301 -0.800385 -0.649221
0.111303 -0.887048 -0.575081
0.099803 -0.670277 -0.752957
0.062418 -0.670277 -0.755717
0.102728 -0.630543 -0.782651
0.137008 -0.670277 -0.74837
0.096699 -0.71104 -0.721436
0.060864 -0.71104 -0.724081
0.063882 -0.630543 -0.785518
0.141386 -0.630543 -0.777884
0.132361 -0.71104 -0.717039
0.11035 -0.506986 -0.860045
0.067698 -0.506986 -0.863193
0.112488 -0.463409 -0.881745
0.152797 -0.506986 -0.854811
0.108008 -0.549437 -0.836259
0.066525 -0.549437 -0.839321
0.068768 -0.463409 -0.884972
0.155997 -0.463409 -0.876381
0.14929 -0.549437 -0.831169
0.117615 -0.326963 -0.933808
0.071335 -0.326963 -0.937224
0.118883 -0.279943 -0.946682
0.163673 -0.326963 -0.928129
0.116124 -0.373289 -0.918671
0.070588 -0.373289 -0.922032
0.07197 -0.279943 -0.950144
0.165571 -0.279943 -0.940925
0.161441 -0.373289 -0.913084
0.053141 -0.951375 -0.279193
0.039065 -0.951375 -0.280104
0.057568 -0.951375 -0.324139
0.067125 -0.951375 -0.277341
0.04882 -0.951375 -0.235318
0.036921 -0.951375 -0.235687
0.041275 -0.951375 -0.325342
0.073783 -0.951375 -0.32214
0.060563 -0.951375 -0.233359
0.121319 -0.135851 -0.971412
0.073189 -0.135851 -0.974964
0.121669 -0.087196 -0.974964
0.169217 -0.135851 -0.965506
0.120737 -0.184272 -0.965506
0.072898 -0.184272 -0.969037
0.073364 -0.087196 -0.97853
0.169741 -0.087196 -0.969037
0.168347 -0.184272 -0.959636
0.121319 0.059005 -0.971412
0.073189 0.059005 -0.974964
0.120737 0.107426 -0.965506
0.169217 0.059005 -0.965506
0.121669 0.01035 -0.974964
0.073364 0.01035 -0.97853
0.072898 0.107426 -0.969037
0.168347 0.107426 -0.959636
0.169741 0.01035 -0.969037
0.070594 -0.948158 -0.456393
0.047796 -0.948158 -0.458076
0.07473 -0.938509 -0.498386
0.093282 -0.948158 -0.453596
0.066348 -0.951375 -0.413286
0.04567 -0.951375 -0.414813
0.049866 -0.938509 -0.500221
0.099474 -0.938509 -0.495335
0.086927 -0.951375 -0.410749
0.310367 -0.135851 -0.933808
0.263855 -0.135851 -0.946682
0.311404 -0.087196 -0.937224
0.356193 -0.135851 -0.918671
0.308645 -0.184272 -0.928129
0.262413 -0.184272 -0.940925
0.264723 -0.087196 -0.950144
0.357396 -0.087196 -0.922032
0.354194 -0.184272 -0.913084
0.160142 -0.948158 -0.438581
0.13811 -0.948158 -0.444679
0.172391 -0.938509 -0.47896
0.181849 -0.948158 -0.431411
0.147568 -0.951375 -0.397131
0.127585 -0.951375 -0.402662
0.148363 -0.938509 -0.48561
0.196064 -0.938509 -0.47114
0.167256 -0.951375 -0.390628
0.310367 0.059005 -0.933808
0.263855 0.059005 -0.946682
0.308645 0.107426 -0.928129
0.356193 0.059005 -0.918671
0.311404 0.01035 -0.937224
0.264723 0.01035 -0.950144
0.262413 0.107426 -0.940925
0.354194 0.107426 -0.913084
0.357396 0.01035 -0.922032
0.299513 0.247098 -0.898027
0.25477 0.247098 -0.910411
0.295442 0.284368 -0.884605
0.343597 0.247098 -0.883466
0.303154 0.203097 -0.910028
0.257817 0.203097 -0.922576
0.251362 0.284368 -0.896806
0.338872 0.284368 -0.87026
0.347822 0.203097 -0.895274
0.206891 -0.846084 -0.59269
0.177241 -0.846085 -0.600896
0.21755 -0.800385 -0.62783
0.236103 -0.846085 -0.583041
0.195793 -0.887048 -0.556107
0.167952 -0.887048 -0.563813
0.186163 -0.800385 -0.636518
0.248474 -0.800385 -0.617616
0.223224 -0.887048 -0.547046
0.246647 -0.670277 -0.723748
0.210518 -0.670277 -0.733748
0.255308 -0.630543 -0.752301
0.282242 -0.670277 -0.711991
0.237452 -0.71104 -0.693438
0.202822 -0.71104 -0.703024
0.217768 -0.630543 -0.762691
0.292294 -0.630543 -0.740084
0.271571 -0.71104 -0.682169
0.277883 -0.506986 -0.82672
0.236664 -0.506986 -0.838129
0.284213 -0.463409 -0.847587
0.318493 -0.506986 -0.813307
0.270945 -0.549437 -0.803849
0.230857 -0.549437 -0.814944
0.241963 -0.463409 -0.859281
0.325839 -0.463409 -0.833838
0.310441 -0.549437 -0.790803
0.299399 -0.326963 -0.897649
0.254674 -0.326963 -0.910028
0.303154 -0.279943 -0.910028
0.343464 -0.326963 -0.883094
0.294984 -0.373289 -0.883094
0.250978 -0.373289 -0.895274
0.257817 -0.279943 -0.922577
0.347822 -0.279943 -0.895274
0.33834 -0.373289 -0.868773
0.108455 -0.951375 -0.26819
0.094827 -0.951375 -0.27183
0.121565 -0.951375 -0.31141
0.121808 -0.951375 -0.263646
0.095657 -0.951375 -0.226002
0.084058 -0.951375 -0.228685
0.10582 -0.951375 -0.315768
0.137078 -0.951375 -0.306286
0.106792 -0.951375 -0.221789
0.470635 -0.326963 -0.82672
0.429185 -0.326963 -0.847587
0.476733 -0.279943 -0.838129
0.511014 -0.326963 -0.803849
0.463465 -0.373289 -0.813306
0.422682 -0.373289 -0.833838
0.434716 -0.279943 -0.859281
0.517664 -0.279943 -0.814944
0.503194 -0.373289 -0.790803
0.488447 -0.135851 -0.860045
0.44534 -0.135851 -0.881745
0.49013 -0.087196 -0.863193
0.53044 -0.135851 -0.836259
0.48565 -0.184272 -0.854811
0.442803 -0.184272 -0.876381
0.446867 -0.087196 -0.884972
0.532275 -0.087196 -0.83932
0.527389 -0.184272 -0.831169
0.160559 -0.951375 -0.246608
0.147903 -0.951375 -0.252837
0.181849 -0.951375 -0.286439
0.172769 -0.951375 -0.239546
0.139776 -0.951375 -0.207727
0.128924 -0.951375 -0.212622
0.167256 -0.951375 -0.293785
0.196064 -0.951375 -0.278387
0.149875 -0.951375 -0.201423
0.244495 -0.948158 -0.403641
0.224076 -0.948158 -0.41392
0.264385 -0.938509 -0.440854
0.264385 -0.948158 -0.392374
0.224076 -0.951375 -0.36544
0.205556 -0.951375 -0.374763
0.242117 -0.938509 -0.452065
0.286078 -0.938509 -0.428567
0.242117 -0.951375 -0.355221
0.488447 0.059005 -0.860045
0.44534 0.059005 -0.881745
0.48565 0.107426 -0.854811
0.53044 0.059005 -0.836259
0.49013 0.01035 -0.863193
0.446867 0.01035 -0.884972
0.442803 0.107426 -0.876381
0.527389 0.107426 -0.831169
0.532275 0.01035 -0.83932
0.32041 -0.846084 -0.545668
0.292931 -0.846085 -0.559502
0.33772 -0.800385 -0.578054
0.347178 -0.846085 -0.530506
0.302389 -0.887048 -0.511953
0.276586 -0.887048 -0.524943
0.308631 -0.800385 -0.592698
0.366057 -0.800385 -0.562003
0.327525 -0.887048 -0.497715
0.470821 0.247098 -0.827069
0.429354 0.247098 -0.847944
0.46421 0.284368 -0.814699
0.511217 0.247098 -0.804187
0.476733 0.203097 -0.838129
0.434716 0.203097 -0.859281
0.423357 0.284368 -0.835265
0.504006 0.284368 -0.792157
0.517664 0.203097 -0.814944
0.38497 -0.670277 -0.666453
0.351487 -0.670277 -0.683309
0.399035 -0.630543 -0.692767
0.417588 -0.670277 -0.647977
0.370039 -0.71104 -0.638519
0.337945 -0.71104 -0.654676
0.364244 -0.630543 -0.710281
0.432927 -0.630543 -0.673569
0.401304 -0.71104 -0.620809
0.435695 -0.506986 -0.761352
0.397494 -0.506986 -0.780583
0.445974 -0.463409 -0.780583
0.472908 -0.506986 -0.740274
0.424428 -0.549437 -0.740274
0.387275 -0.549437 -0.758977
0.406817 -0.463409 -0.800295
0.484119 -0.463409 -0.758977
0.460621 -0.549437 -0.719773
0.577723 -0.506986 -0.666453
0.544007 -0.506986 -0.692767
0.591556 -0.463409 -0.683309
0.610108 -0.506986 -0.638519
0.56256 -0.549437 -0.647977
0.52977 -0.549437 -0.673569
0.556997 -0.463409 -0.710281
0.624752 -0.463409 -0.654676
0.594057 -0.549437 -0.620809
0.624744 -0.326963 -0.723748
0.588161 -0.326963 -0.752301
0.63295 -0.279943 -0.733748
0.659884 -0.326963 -0.693438
0.615095 -0.373289 -0.711991
0.5791 -0.373289 -0.740084
0.595867 -0.279943 -0.762691
0.668572 -0.279943 -0.703023
0.64967 -0.373289 -0.682169
0.648715 -0.135851 -0.752957
0.61067 -0.135851 -0.782651
0.65098 -0.087196 -0.755717
0.68526 -0.135851 -0.721436
0.64495 -0.184272 -0.74837
0.607135 -0.184272 -0.777884
0.612796 -0.087196 -0.785518
0.687657 -0.087196 -0.724081
0.681275 -0.184272 -0.717039
0.207451 -0.951375 -0.215276
0.196254 -0.951375 -0.223854
0.236103 -0.951375 -0.250188
0.218049 -0.951375 -0.205967
0.179483 -0.951375 -0.181196
0.169794 -0.951375 -0.188114
0.223224 -0.951375 -0.26024
0.248474 -0.951375 -0.239517
0.188158 -0.951375 -0.173043
0.648715 0.059005 -0.752957
0.61067 0.059005 -0.782651
0.64495 0.107426 -0.74837
0.68526 0.059005 -0.721436
0.65098 0.01035 -0.755717
0.612796 0.01035 -0.785518
0.607135 0.107426 -0.777884
0.681275 0.107426 -0.717039
0.687657 0.01035 -0.724081
0.32041 -0.948158 -0.352916
0.302389 -0.948158 -0.366981
0.347178 -0.938509 -0.385534
0.33772 -0.948158 -0.337985
0.292931 -0.951375 -0.319433
0.276586 -0.951375 -0.33219
0.327525 -0.938509 -0.400873
0.366057 -0.938509 -0.36925
0.308631 -0.951375 -0.305891
0.422574 -0.846084 -0.477404
0.398322 -0.846085 -0.496333
0.445871 -0.800385 -0.505791
0.445871 -0.846085 -0.457311
0.398322 -0.887048 -0.447853
0.375549 -0.887048 -0.465627
0.420197 -0.800385 -0.525828
0.470532 -0.800385 -0.48452
0.420197 -0.887048 -0.428985
0.624994 0.247098 -0.724053
0.588396 0.247098 -0.752618
0.616097 0.284368 -0.713212
0.66015 0.247098 -0.693731
0.63295 0.203097 -0.733748
0.595867 0.203097 -0.762691
0.580041 0.284368 -0.741353
0.650731 0.284368 -0.683339
0.668572 0.203097 -0.703023
0.509458 -0.670277 -0.583272
0.479907 -0.670277 -0.606337
0.528387 -0.630543 -0.606337
0.537845 -0.670277 -0.558788
0.489365 -0.71104 -0.558788
0.461039 -0.71104 -0.580896
0.497681 -0.630543 -0.630302
0.557882 -0.630543 -0.580896
0.516574 -0.71104 -0.53532
0.509458 -0.846084 -0.39052
0.489365 -0.846085 -0.413816
0.537845 -0.800385 -0.413816
0.528387 -0.846085 -0.366268
0.479907 -0.887048 -0.366268
0.461039 -0.887048 -0.388143
0.516574 -0.800385 -0.438477
0.557882 -0.800385 -0.388143
0.497681 -0.887048 -0.343495
0.615327 -0.670277 -0.477404
0.590843 -0.670277 -0.505791
0.638391 -0.630543 -0.496333
0.638391 -0.670277 -0.447852
0.590843 -0.71104 -0.45731
0.567374 -0.71104 -0.48452
0.61295 -0.630543 -0.525828
0.662356 -0.630543 -0.465626
0.61295 -0.71104 -0.428984
0.698507 -0.506986 -0.545668
0.670573 -0.506986 -0.578054
0.715363 -0.463409 -0.559502
0.724821 -0.506986 -0.511953
0.680031 -0.549437 -0.530506
0.652864 -0.549437 -0.562003
0.68673 -0.463409 -0.592698
0.742335 -0.463409 -0.524943
0.705623 -0.549437 -0.497715
0.755802 -0.326963 -0.59269
0.725493 -0.326963 -0.62783
0.765802 -0.279943 -0.600896
0.784355 -0.326963 -0.556107
0.744045 -0.373289 -0.583041
0.714223 -0.373289 -0.617616
0.735078 -0.279943 -0.636518
0.794745 -0.279943 -0.563813
0.772138 -0.373289 -0.547046
0.24733 -0.951375 -0.175397
0.238021 -0.951375 -0.185995
0.282242 -0.951375 -0.204049
0.255908 -0.951375 -0.164199
0.21325 -0.951375 -0.147429
0.205097 -0.951375 -0.156104
0.271571 -0.951375 -0.21642
0.292294 -0.951375 -0.19117
0.220168 -0.951375 -0.13774
0.785011 -0.135851 -0.616661